
Host: home

Timers On : Sun May  8 12:19:44 2022
Timers Off: Sun May  8 12:19:47 2022

Wall Time:        3.20 seconds

                                                       Time (seconds)
Module                                       User      System        Wall        Calls

--------------------------------------------------------------------------------------

**************************************************************************************

Host: home

Timers On : Sun May  8 12:32:26 2022
Timers Off: Sun May  8 12:32:29 2022

Wall Time:        3.03 seconds

                                                       Time (seconds)
Module                                       User      System        Wall        Calls

--------------------------------------------------------------------------------------

**************************************************************************************

Host: home

Timers On : Sun May  8 12:34:26 2022
Timers Off: Sun May  8 12:34:27 2022

Wall Time:        0.84 seconds

                                                       Time (seconds)
Module                                       User      System        Wall        Calls

--------------------------------------------------------------------------------------

**************************************************************************************

Host: home

Timers On : Sun May  8 12:36:59 2022
Timers Off: Sun May  8 12:37:02 2022

Wall Time:        3.06 seconds

                                                       Time (seconds)
Module                                       User      System        Wall        Calls

--------------------------------------------------------------------------------------

**************************************************************************************

Host: home

Timers On : Sun May  8 12:40:01 2022
Timers Off: Sun May  8 12:40:02 2022

Wall Time:        0.80 seconds

                                                       Time (seconds)
Module                                       User      System        Wall        Calls

--------------------------------------------------------------------------------------

**************************************************************************************

Host: home

Timers On : Sun May  8 12:40:06 2022
Timers Off: Sun May  8 12:40:07 2022

Wall Time:        0.92 seconds

                                                       Time (seconds)
Module                                       User      System        Wall        Calls

--------------------------------------------------------------------------------------

**************************************************************************************

Host: home

Timers On : Sun May  8 12:40:14 2022
Timers Off: Sun May  8 12:40:15 2022

Wall Time:        1.59 seconds

                                                       Time (seconds)
Module                                       User      System        Wall        Calls

--------------------------------------------------------------------------------------

**************************************************************************************

Host: home

Timers On : Sun May  8 12:40:46 2022
Timers Off: Sun May  8 12:40:47 2022

Wall Time:        0.98 seconds

                                                       Time (seconds)
Module                                       User      System        Wall        Calls

--------------------------------------------------------------------------------------

**************************************************************************************

Host: home

Timers On : Sun May  8 12:41:40 2022
Timers Off: Sun May  8 12:41:41 2022

Wall Time:        0.95 seconds

                                                       Time (seconds)
Module                                       User      System        Wall        Calls

--------------------------------------------------------------------------------------

**************************************************************************************

Host: home

Timers On : Sun May  8 12:41:47 2022
Timers Off: Sun May  8 12:41:48 2022

Wall Time:        0.92 seconds

                                                       Time (seconds)
Module                                       User      System        Wall        Calls

--------------------------------------------------------------------------------------

**************************************************************************************

Host: home

Timers On : Sun May  8 12:42:03 2022
Timers Off: Sun May  8 12:42:04 2022

Wall Time:        1.15 seconds

                                                       Time (seconds)
Module                                       User      System        Wall        Calls

--------------------------------------------------------------------------------------

**************************************************************************************

Host: home

Timers On : Sun May  8 12:42:05 2022
Timers Off: Sun May  8 12:42:07 2022

Wall Time:        1.93 seconds

                                                       Time (seconds)
Module                                       User      System        Wall        Calls

--------------------------------------------------------------------------------------

**************************************************************************************

Host: home

Timers On : Sun May  8 12:46:20 2022
Timers Off: Sun May  8 12:46:21 2022

Wall Time:        0.76 seconds

                                                       Time (seconds)
Module                                       User      System        Wall        Calls

--------------------------------------------------------------------------------------

**************************************************************************************

Host: home

Timers On : Sun May  8 12:46:39 2022
Timers Off: Sun May  8 12:46:39 2022

Wall Time:        0.77 seconds

                                                       Time (seconds)
Module                                       User      System        Wall        Calls

--------------------------------------------------------------------------------------

**************************************************************************************

Host: home

Timers On : Sun May  8 12:46:42 2022
Timers Off: Sun May  8 12:46:43 2022

Wall Time:        0.85 seconds

                                                       Time (seconds)
Module                                       User      System        Wall        Calls

--------------------------------------------------------------------------------------

**************************************************************************************

Host: home

Timers On : Sun May  8 12:46:47 2022
Timers Off: Sun May  8 12:46:48 2022

Wall Time:        0.81 seconds

                                                       Time (seconds)
Module                                       User      System        Wall        Calls

--------------------------------------------------------------------------------------

**************************************************************************************

Host: home

Timers On : Sun May  8 12:46:53 2022
Timers Off: Sun May  8 12:46:55 2022

Wall Time:        1.53 seconds

                                                       Time (seconds)
Module                                       User      System        Wall        Calls

--------------------------------------------------------------------------------------

**************************************************************************************

Host: home

Timers On : Sun May  8 12:48:51 2022
Timers Off: Sun May  8 12:48:52 2022

Wall Time:        0.87 seconds

                                                       Time (seconds)
Module                                       User      System        Wall        Calls

--------------------------------------------------------------------------------------

**************************************************************************************

Host: home

Timers On : Sun May  8 12:49:00 2022
Timers Off: Sun May  8 12:49:02 2022

Wall Time:        1.18 seconds

                                                       Time (seconds)
Module                                       User      System        Wall        Calls

--------------------------------------------------------------------------------------

**************************************************************************************

Host: home

Timers On : Sun May  8 12:49:09 2022
Timers Off: Sun May  8 12:49:10 2022

Wall Time:        1.04 seconds

                                                       Time (seconds)
Module                                       User      System        Wall        Calls

--------------------------------------------------------------------------------------

**************************************************************************************

Host: home

Timers On : Sun May  8 12:49:13 2022
Timers Off: Sun May  8 12:49:15 2022

Wall Time:        1.02 seconds

                                                       Time (seconds)
Module                                       User      System        Wall        Calls

--------------------------------------------------------------------------------------

**************************************************************************************

Host: home

Timers On : Sun May  8 12:53:05 2022
Timers Off: Sun May  8 12:53:07 2022

Wall Time:        1.24 seconds

                                                       Time (seconds)
Module                                       User      System        Wall        Calls

--------------------------------------------------------------------------------------

**************************************************************************************

Host: home

Timers On : Sun May  8 12:53:10 2022
Timers Off: Sun May  8 12:53:11 2022

Wall Time:        1.27 seconds

                                                       Time (seconds)
Module                                       User      System        Wall        Calls

--------------------------------------------------------------------------------------

**************************************************************************************

Host: home

Timers On : Sun May  8 12:54:35 2022
Timers Off: Sun May  8 12:54:36 2022

Wall Time:        1.19 seconds

                                                       Time (seconds)
Module                                       User      System        Wall        Calls

--------------------------------------------------------------------------------------

**************************************************************************************

Host: home

Timers On : Sun May  8 12:56:17 2022
Timers Off: Sun May  8 12:56:19 2022

Wall Time:        2.30 seconds

                                                       Time (seconds)
Module                                       User      System        Wall        Calls

--------------------------------------------------------------------------------------

**************************************************************************************

Host: home

Timers On : Sun May  8 12:58:54 2022
Timers Off: Sun May  8 12:58:57 2022

Wall Time:        2.62 seconds

                                                       Time (seconds)
Module                                       User      System        Wall        Calls

--------------------------------------------------------------------------------------

**************************************************************************************

Host: home

Timers On : Sun May  8 13:18:52 2022
Timers Off: Sun May  8 13:19:00 2022

Wall Time:        8.15 seconds

                                                       Time (seconds)
Module                                       User      System        Wall        Calls

--------------------------------------------------------------------------------------

**************************************************************************************

Host: home

Timers On : Sun May  8 13:19:05 2022
Timers Off: Sun May  8 13:19:20 2022

Wall Time:       14.44 seconds

                                                       Time (seconds)
Module                                       User      System        Wall        Calls

--------------------------------------------------------------------------------------

**************************************************************************************

Host: home

Timers On : Sun May  8 13:26:44 2022
Timers Off: Sun May  8 13:26:45 2022

Wall Time:        0.85 seconds

                                                       Time (seconds)
Module                                       User      System        Wall        Calls

--------------------------------------------------------------------------------------

**************************************************************************************

Host: home

Timers On : Sun May  8 13:37:23 2022
Timers Off: Sun May  8 13:37:36 2022

Wall Time:       12.91 seconds

                                                       Time (seconds)
Module                                       User      System        Wall        Calls

--------------------------------------------------------------------------------------

**************************************************************************************

Host: home

Timers On : Sun May  8 13:44:57 2022
Timers Off: Sun May  8 13:44:58 2022

Wall Time:        0.82 seconds

                                                       Time (seconds)
Module                                       User      System        Wall        Calls

--------------------------------------------------------------------------------------

**************************************************************************************

Host: home

Timers On : Sun May  8 13:45:04 2022
Timers Off: Sun May  8 13:45:04 2022

Wall Time:        0.85 seconds

                                                       Time (seconds)
Module                                       User      System        Wall        Calls

--------------------------------------------------------------------------------------

**************************************************************************************

Host: home

Timers On : Sun May  8 13:45:26 2022
Timers Off: Sun May  8 13:45:27 2022

Wall Time:        0.91 seconds

                                                       Time (seconds)
Module                                       User      System        Wall        Calls

--------------------------------------------------------------------------------------

**************************************************************************************

Host: home

Timers On : Sun May  8 13:49:13 2022
Timers Off: Sun May  8 13:49:14 2022

Wall Time:        0.81 seconds

                                                       Time (seconds)
Module                                       User      System        Wall        Calls

--------------------------------------------------------------------------------------

**************************************************************************************

Host: home

Timers On : Sun May  8 13:49:24 2022
Timers Off: Sun May  8 13:49:24 2022

Wall Time:        0.79 seconds

                                                       Time (seconds)
Module                                       User      System        Wall        Calls

--------------------------------------------------------------------------------------

**************************************************************************************

Host: home

Timers On : Sun May  8 14:59:18 2022
Timers Off: Sun May  8 14:59:19 2022

Wall Time:        0.80 seconds

                                                       Time (seconds)
Module                                       User      System        Wall        Calls

--------------------------------------------------------------------------------------

**************************************************************************************
