24
# ORCA AIMD Position Step 0, t=0.00 fs, E_Pot=-462.08349115 Hartree, Unit is Angstrom
 O      1.4550590065     -0.8808180039      0.8513310038
 H      0.5052160023     -1.1525240052      0.8448850038
 C      2.2203680099     -1.9421770087      0.2977000013
 H      3.2592490146     -1.6187710072      0.2649090012
 H      1.8969300085     -2.1883370098     -0.7171120032
 H      2.1544630096     -2.8405620127      0.9157230041
 O      1.1460080051      1.4424360065     -0.4731020021
 H      1.3856180062      0.6142950028      0.0094300000
 C      1.4748970066      2.5470010114      0.3578360016
 H      1.1662650052      3.4536210155     -0.1595870007
 H      2.5510090114      2.5982670116      0.5387960024
 H      0.9579410043      2.4983190112      1.3198320059
 O     -1.1810730053     -1.3650910061      0.5994730027
 H     -1.3859220062     -0.6136100027     -0.0082920000
 C     -2.0513940092     -1.2757690057      1.7189610077
 H     -1.7898790080     -2.0784880093      2.4061250108
 H     -3.0944700139     -1.3998850063      1.4189930064
 H     -1.9458220087     -0.3199650014      2.2389050100
 O     -1.4199620064      0.8034470036     -0.9777130044
 H     -0.5048810023      1.1518070052     -0.8460370038
 C     -1.6438790074      0.6709530030     -2.3744930106
 H     -2.6356450118      0.2436490011     -2.5114380112
 H     -0.9090750041      0.0099930000     -2.8416580127
 H     -1.6110220072      1.6422090074     -2.8734660129
24
# ORCA AIMD Position Step 1, t=1.00 fs, E_Pot=-462.08013413 Hartree, Unit is Angstrom
 O      1.4568051773     -0.8797976504      0.8530897307
 H      0.4858306249     -1.1601962049      0.8522143880
 C      2.2243904811     -1.9398434850      0.2956757501
 H      3.2760347934     -1.6122072683      0.2965370227
 H      1.9116640561     -2.1954237491     -0.7048139942
 H      2.1437568628     -2.8580773236      0.8964826462
 O      1.1492691149      1.4488794989     -0.4696824393
 H      1.3840229242      0.6047254384      0.0231904729
 C      1.4742598006      2.5473726123      0.3629278006
 H      1.1651705996      3.4586715090     -0.1524676717
 H      2.5733851614      2.5951823194      0.5403739252
 H      0.9640838907      2.5428046689      1.3098848458
 O     -1.1788872286     -1.3658098686      0.6044361097
 H     -1.4005085553     -0.6087831840     -0.0212609012
 C     -2.0546129050     -1.2861906226      1.7259098119
 H     -1.7943891672     -2.0690510000      2.3905331988
 H     -3.0808348134     -1.4016874865      1.3962559777
 H     -1.9659425434     -0.3150893692      2.2229371103
 O     -1.4209440819      0.8123416386     -0.9708896666
 H     -0.5239125297      1.1675274439     -0.8639149659
 C     -1.6384211421      0.6697718993     -2.3691507561
 H     -2.6267335647      0.2312518148     -2.5121669726
 H     -0.9281673844     -0.0179717809     -2.8393190040
 H     -1.5953205713      1.6316001496     -2.8667814191
24
# ORCA AIMD Position Step 2, t=2.00 fs, E_Pot=-462.07359363 Hartree, Unit is Angstrom
 O      1.4580851110     -0.8789486556      0.8548325790
 H      0.4733922438     -1.1655002973      0.8592997876
 C      2.2287851743     -1.9375429058      0.2941817580
 H      3.2889868450     -1.6073864325      0.3273516585
 H      1.9257096576     -2.2018352497     -0.6975196758
 H      2.1334971162     -2.8731882736      0.8772650923
 O      1.1525647702      1.4549856735     -0.4660186314
 H      1.3809408664      0.5999337149      0.0339107869
 C      1.4743956142      2.5480603035      0.3676368830
 H      1.1652597586      3.4631279652     -0.1459967981
 H      2.5893681196      2.5923527408      0.5414258015
 H      0.9675603553      2.5849314248      1.3053084814
 O     -1.1767239770     -1.3662439998      0.6091456786
 H     -1.4130225773     -0.6087703274     -0.0296064403
 C     -2.0578757962     -1.2958450362      1.7321752681
 H     -1.7968737461     -2.0665970648      2.3816811934
 H     -3.0700769045     -1.4047095825      1.3738819737
 H     -1.9858277657     -0.3112265659      2.2079222634
 O     -1.4222991173      0.8210903987     -0.9641950637
 H     -0.5362828554      1.1855606098     -0.8792203718
 C     -1.6331242104      0.6682092012     -2.3637712882
 H     -2.6181052228      0.2204042760     -2.5123143519
 H     -0.9459466681     -0.0448708346     -2.8359281152
 H     -1.5795829559      1.6228849138     -2.8616207573
24
# ORCA AIMD Position Step 3, t=3.00 fs, E_Pot=-462.06989061 Hartree, Unit is Angstrom
 O      1.4586451040     -0.8783842918      0.8565575972
 H      0.4717604800     -1.1670946401      0.8658024626
 C      2.2338188189     -1.9352970625      0.2936100979
 H      3.2955491539     -1.6055901566      0.3566548084
 H      1.9389094146     -2.2067693603     -0.6987795708
 H      2.1240058487     -2.8840956029      0.8582333398
 O      1.1559153561      1.4605945001     -0.4619158060
 H      1.3755412022      0.6026808184      0.0399199548
 C      1.4758006518      2.5493325578      0.3717593654
 H      1.1675410573      3.4666106647     -0.1408533195
 H      2.5950493647      2.5900342011      0.5418376998
 H      0.9667585241      2.6231012236      1.3094498222
 O     -1.1745702283     -1.3662483310      0.6135028371
 H     -1.4220276394     -0.6161525714     -0.0303843475
 C     -2.0612767131     -1.3042171346      1.7372423627
 H     -1.7959450081     -2.0761222049      2.3844747915
 H     -3.0640125419     -1.4100933146      1.3522805360
 H     -2.0053678827     -0.3093569568      2.1946923799
 O     -1.4242375328      0.8296795909     -0.9576700309
 H     -0.5381926880      1.2073317889     -0.8902629156
 C     -1.6280761805      0.6659347477     -2.3582895060
 H     -2.6101645978      0.2124344743     -2.5114149485
 H     -0.9613747341     -0.0697881497     -2.8304485003
 H     -1.5636370098      1.6172066280     -2.8591678781
24
# ORCA AIMD Position Step 4, t=4.00 fs, E_Pot=-462.07014969 Hartree, Unit is Angstrom
 O      1.4584412437     -0.8781629110      0.8582544572
 H      0.4818222780     -1.1646651935      0.8714300161
 C      2.2395212578     -1.9331682885      0.2940900788
 H      3.2949127845     -1.6074297537      0.3836816304
 H      1.9518476453     -2.2088926138     -0.7093312513
 H      2.1155059856     -2.8897836838      0.8399826847
 O      1.1592853019      1.4656745159     -0.4572933968
 H      1.3677649456      0.6133906322      0.0408871176
 C      1.4785977097      2.5514219915      0.3753566327
 H      1.1727285718      3.4689556161     -0.1377619418
 H      2.5892643422      2.5884726450      0.5419006259
 H      0.9618996710      2.6557883073      1.3220446236
 O     -1.1723940975     -1.3658331568      0.6175402145
 H     -1.4268899926     -0.6310750363     -0.0227818230
 C     -2.0648593211     -1.3112440405      1.7409019338
 H     -1.7919687379     -2.0973160624      2.3992269324
 H     -3.0630886344     -1.4187966803      1.3323813697
 H     -2.0243427739     -0.3101854944      2.1841838221
 O     -1.4266424665      0.8382018832     -0.9513376981
 H     -0.5310282038      1.2320557140     -0.8960765321
 C     -1.6233369218      0.6627683197     -2.3526877323
 H     -2.6036188602      0.2084459319     -2.5091464600
 H     -0.9734279355     -0.0918138536     -2.8220186374
 H     -1.5474222924      1.6144474417     -2.8600051183
24
# ORCA AIMD Position Step 5, t=5.00 fs, E_Pot=-462.07034049 Hartree, Unit is Angstrom
 O      1.4576596852     -0.8782808552      0.8598913131
 H      0.5011977362     -1.1590741507      0.8759847563
 C      2.2456224821     -1.9312686051      0.2954405443
 H      3.2883812098     -1.6126775862      0.4076317269
 H      1.9657221497     -2.2063744526     -0.7266787305
 H      2.1080927562     -2.8902203901      0.8235878591
 O      1.1625645600      1.4703040285     -0.4522315099
 H      1.3583577234      0.6298822582      0.0379632104
 C      1.4824988416      2.5545149978      0.3787053681
 H      1.1811095866      3.4702206511     -0.1373636730
 H      2.5739862770      2.5878757716      0.5423165079
 H      0.9549526450      2.6812069958      1.3393119296
 O     -1.1701535600     -1.3651808613      0.6214160193
 H     -1.4280484014     -0.6509141591     -0.0085619402
 C     -2.0685731233     -1.3173121398      1.7432508411
 H     -1.7871740719     -2.1241767630      2.4213085058
 H     -3.0663631116     -1.4314144550      1.3157563480
 H     -2.0423334874     -0.3139335622      2.1774362238
 O     -1.4291133141      0.8467841376     -0.9452622833
 H     -0.5205421250      1.2567453070     -0.8962327680
 C     -1.6189625041      0.6587466454     -2.3470327479
 H     -2.5994294232      0.2092082806     -2.5053748290
 H     -0.9810609157     -0.1100965496     -2.8101379665
 H     -1.5311497224      1.6130778219     -2.8639311276
24
# ORCA AIMD Position Step 6, t=6.00 fs, E_Pot=-462.06752956 Hartree, Unit is Angstrom
 O      1.4567348332     -0.8786576850      0.8614339768
 H      0.5239147066     -1.1524245474      0.8794725695
 C      2.2516697662     -1.9296931141      0.2972646096
 H      3.2793193982     -1.6202906554      0.4281871725
 H      1.9820016624     -2.1974260003     -0.7463648481
 H      2.1015850495     -2.8864823136      0.8102099904
 O      1.1656205481      1.4747327395     -0.4469153760
 H      1.3486734012      0.6475281078      0.0338030550
 C      1.4869058904      2.5587449027      0.3821655447
 H      1.1925676439      3.4707144501     -0.1400349220
 H      2.5543968920      2.5883739628      0.5441944363
 H      0.9485654144      2.6979291351      1.3560153328
 O     -1.1677641039     -1.3646381293      0.6254613399
 H     -1.4272005784     -0.6704197211      0.0078818789
 C     -2.0723662177     -1.3230611356      1.7445484702
 H     -1.7843754777     -2.1486779147      2.4440977703
 H     -3.0719407206     -1.4481681389      1.3040845438
 H     -2.0590130030     -0.3203492846      2.1752897914
 O     -1.4312133315      0.8555926795     -0.9394868962
 H     -0.5133694145      1.2779575620     -0.8907581333
 C     -1.6149558621      0.6540641901     -2.3413930738
 H     -2.5984710117      0.2150237445     -2.5001244331
 H     -0.9834871261     -0.1242729217     -2.7946424885
 H     -1.5150994371      1.6106349549     -2.8700908261
24
# ORCA AIMD Position Step 7, t=7.00 fs, E_Pot=-462.06410136 Hartree, Unit is Angstrom
 O      1.4562787627     -0.8791524968      0.8628577700
 H      0.5413383429     -1.1476669495      0.8820793457
 C      2.2571894218     -1.9284625427      0.2991250846
 H      3.2722887759     -1.6287735696      0.4456922955
 H      2.0019863906     -2.1807628971     -0.7639122942
 H      2.0955176285     -2.8804499681      0.8008045275
 O      1.1683443283      1.4793448696     -0.4415474797
 H      1.3402543882      0.6604756225      0.0319093545
 C      1.4910968424      2.5641975591      0.3860328672
 H      1.2067653804      3.4709604078     -0.1458730402
 H      2.5378799333      2.5900284279      0.5489593532
 H      0.9449437154      2.7052597497      1.3676484745
 O     -1.1650972092     -1.3646288418      0.6301294066
 H     -1.4267936204     -0.6830839965      0.0207817997
 C     -2.0762530694     -1.3291153464      1.7450400391
 H     -1.7857186214     -2.1644116412      2.4620373121
 H     -3.0777634642     -1.4690448051      1.2986880529
 H     -2.0743107098     -0.3289915989      2.1782293957
 O     -1.4326648843      0.8648096999     -0.9339963079
 H     -0.5141230603      1.2933112534     -0.8799578644
 C     -1.6112640527      0.6489526906     -2.3357756471
 H     -2.6012284525      0.2258466127     -2.4934808116
 H     -0.9802894098     -0.1345714339     -2.7755283184
 H     -1.4994303131      1.6046111325     -2.8774031882
24
# ORCA AIMD Position Step 8, t=8.00 fs, E_Pot=-462.06549508 Hartree, Unit is Angstrom
 O      1.4568540224     -0.8796250345      0.8641440397
 H      0.5454912491     -1.1475080824      0.8840010820
 C      2.2617998944     -1.9275108089      0.3006688371
 H      3.2716024533     -1.6366828950      0.4608475460
 H      2.0264094057     -2.1558856879     -0.7759601714
 H      2.0893005968     -2.8743152969      0.7960131193
 O      1.1706659236      1.4844657125     -0.4362794253
 H      1.3343045118      0.6640937547      0.0351821665
 C      1.4944347067      2.5708882391      0.3904516200
 H      1.2232381093      3.4716182436     -0.1547088155
 H      2.5318056874      2.5928280376      0.5580274112
 H      0.9453251902      2.7031977895      1.3714097211
 O     -1.1620600908     -1.3654590227      0.6357792776
 H     -1.4286812830     -0.6841179690      0.0258376746
 C     -2.0802868560     -1.3359027299      1.7448898659
 H     -1.7922423709     -2.1677710008      2.4716832054
 H     -3.0822125573     -1.4937971874      1.3003392919
 H     -2.0883137405     -0.3394961791      2.1863270885
 O     -1.4334054417      0.8745385869     -0.9287569185
 H     -0.5242907338      1.3019651766     -0.8643016227
 C     -1.6078322971      0.6436221080     -2.3301460408
 H     -2.6075905535      0.2413899225     -2.4855511625
 H     -0.9714418852     -0.1415972928     -2.7529149694
 H     -1.4841920617      1.5932106838     -2.8849042191
24
# ORCA AIMD Position Step 9, t=9.00 fs, E_Pot=-462.07217477 Hartree, Unit is Angstrom
 O      1.4586062491     -0.8800235080      0.8652717158
 H      0.5344593262     -1.1527255769      0.8852349516
 C      2.2653006000     -1.9267030497      0.3017010076
 H      3.2794296340     -1.6431156684      0.4741662591
 H      2.0548918541     -2.1236072890     -0.7807460388
 H      2.0825012344     -2.8700355504      0.7959438724
 O      1.1725503601      1.4900798613     -0.4311922059
 H      1.3312267011      0.6579440045      0.0441290477
 C      1.4966305297      2.5786527031      0.3953459882
 H      1.2412354347      3.4733424406     -0.1659158246
 H      2.5399676573      2.5966208728      0.5720453813
 H      0.9496996820      2.6925576934      1.3666382369
 O     -1.1587316412     -1.3670861201      0.6423686295
 H     -1.4325948960     -0.6738447095      0.0233412320
 C     -2.0844715837     -1.3434913360      1.7441992843
 H     -1.8036627711     -2.1582026017      2.4718706001
 H     -3.0844416072     -1.5215872456      1.3089866463
 H     -2.1010359993     -0.3515842395      2.1989963063
 O     -1.4336023107      0.8846201335     -0.9238079813
 H     -0.5416012213      1.3047565810     -0.8445834856
 C     -1.6046724767      0.6382967045     -2.3245154318
 H     -2.6166213842      0.2608823156     -2.4765696231
 H     -0.9575677228     -0.1460991491     -2.7273578962
 H     -1.4695038387      1.5760257532     -2.8918790237
24
# ORCA AIMD Position Step 10, t=10.00 fs, E_Pot=-462.07771840 Hartree, Unit is Angstrom
 O      1.4611219101     -0.8804211757      0.8662370953
 H      0.5145479742     -1.1614612797      0.8855706256
 C      2.2678249446     -1.9258617248      0.3022808028
 H      3.2943731335     -1.6481544284      0.4858687561
 H      2.0860397925     -2.0859965012     -0.7787491255
 H      2.0750076835     -2.8685705356      0.7997362232
 O      1.1740268809      1.4958234682     -0.4262360545
 H      1.3305044072      0.6465628733      0.0564431061
 C      1.4980003372      2.5871837702      0.4004573592
 H      1.2599002514      3.4765599979     -0.1783565087
 H      2.5597469463      2.6011414868      0.5903338977
 H      0.9565857411      2.6751654726      1.3553174085
 O     -1.1553446510     -1.3691204299      0.6494789119
 H     -1.4361211677     -0.6577618235      0.0182160833
 C     -2.0887775853     -1.3515964931      1.7430171385
 H     -1.8182458057     -2.1387150880      2.4642720415
 H     -3.0846732453     -1.5511758041      1.3234583825
 H     -2.1125453084     -0.3651096598      2.2149075849
 O     -1.4336615178      0.8947000908     -0.9192197713
 H     -0.5600438778      1.3043653460     -0.8217554041
 C     -1.6018209256      0.6331477452     -2.3188937599
 H     -2.6266614406      0.2830555912     -2.4668652651
 H     -0.9400580419     -0.1489455603     -2.6997120039
 H     -1.4553774014      1.5542859299     -2.8981002689
24
# ORCA AIMD Position Step 11, t=11.00 fs, E_Pot=-462.07759996 Hartree, Unit is Angstrom
 O      1.4637619948     -0.8809433345      0.8670612590
 H      0.4953289866     -1.1707052334      0.8847764298
 C      2.2698040793     -1.9248180817      0.3027318245
 H      3.3123264331     -1.6527115055      0.4960580518
 H      2.1181302383     -2.0455308445     -0.7726423633
 H      2.0670169912     -2.8695353869      0.8055772596
 O      1.1751790533      1.5012593893     -0.4212533165
 H      1.3312442248      0.6364127523      0.0687639420
 C      1.4993358146      2.5961884237      0.4054321418
 H      1.2786057760      3.4813306846     -0.1905926880
 H      2.5839517595      2.6061604892      0.6112960436
 H      0.9633060031      2.6534119599      1.3417069837
 O     -1.1521343215     -1.3710996160      0.6566512703
 H     -1.4363943929     -0.6425089332      0.0163931131
 C     -2.0932102560     -1.3597223624      1.7412923183
 H     -1.8330986087     -2.1154769711      2.4533938649
 H     -3.0841390561     -1.5814996469      1.3417574322
 H     -2.1231183124     -0.3800768507      2.2323682434
 O     -1.4341071260      0.9044520175     -0.9150180621
 H     -0.5720078718      1.3043890784     -0.7964995465
 C     -1.5992670273      0.6282137615     -2.3132043329
 H     -2.6358942839      0.3064831922     -2.4567342152
 H     -0.9207245308     -0.1510284508     -2.6706860406
 H     -1.4415021069      1.5303282565     -2.9039637122
24
# ORCA AIMD Position Step 12, t=12.00 fs, E_Pot=-462.07389141 Hartree, Unit is Angstrom
 O      1.4660131260     -0.8816829089      0.8677753849
 H      0.4843887895     -1.1779542923      0.8827644802
 C      2.2717528322     -1.9234562892      0.3035305459
 H      3.3285786872     -1.6578992575      0.5049076525
 H      2.1495423285     -2.0045291407     -0.7663931767
 H      2.0589395886     -2.8716021505      0.8111099839
 O      1.1761007209      1.5060819564     -0.4160865723
 H      1.3327500235      0.6326625719      0.0784478917
 C      1.5015178646      2.6054451293      0.4098835562
 H      1.2969380563      3.4873875357     -0.2010601025
 H      2.6049000007      2.6115372333      0.6331559982
 H      0.9667076370      2.6297101273      1.3310638975
 O     -1.1492567634     -1.3726955568      0.6635913113
 H     -1.4314756604     -0.6327138093      0.0219122401
 C     -2.0978181283     -1.3672864812      1.7388612633
 H     -1.8446711838     -2.0964652007      2.4456317173
 H     -3.0846269822     -1.6118272652      1.3615527041
 H     -2.1331734914     -0.3964161996      2.2496748515
 O     -1.4353278652      0.9137105905     -0.9111690591
 H     -0.5721839876      1.3073488619     -0.7694215344
 C     -1.5969348172      0.6234413956     -2.3072953218
 H     -2.6428491162      0.3297080091     -2.4464491108
 H     -0.9014973485     -0.1531531596     -2.6407854150
 H     -1.4273289618      1.5068674467     -2.9102914885
24
# ORCA AIMD Position Step 13, t=13.00 fs, E_Pot=-462.07135983 Hartree, Unit is Angstrom
 O      1.4676052232     -0.8826724102      0.8684121880
 H      0.4856996225     -1.1818331759      0.8796439119
 C      2.2740922671     -1.9217203469      0.3051283684
 H      3.3394513341     -1.6645220268      0.5128302620
 H      2.1790046444     -1.9648897117     -0.7638034976
 H      2.0512388054     -2.8732218486      0.8139237395
 O      1.1768710476      1.5101777135     -0.4106455953
 H      1.3347328253      0.6379300809      0.0842343882
 C      1.5052052048      2.6147983970      0.4135280565
 H      1.3145337978      3.4943282095     -0.2082686153
 H      2.6169927721      2.6171646107      0.6544318162
 H      0.9643194566      2.6061944077      1.3275563272
 O     -1.1467850641     -1.3737653245      0.6702029614
 H     -1.4207615146     -0.6302082509      0.0361586992
 C     -2.1026523172     -1.3738382550      1.7355773239
 H     -1.8497266787     -2.0887447652      2.4468681725
 H     -3.0878223233     -1.6416726973      1.3806215866
 H     -2.1431747009     -0.4137402497      2.2653401208
 O     -1.4373508926      0.9225414215     -0.9075620003
 H     -0.5609765817      1.3130299587     -0.7417391468
 C     -1.5946833378      0.6187699623     -2.3009903090
 H     -2.6466891565      0.3512602065     -2.4363164904
 H     -0.8842382570     -0.1560363275     -2.6104322330
 H     -1.4122659918      1.4862316995     -2.9179124265
24
# ORCA AIMD Position Step 14, t=14.00 fs, E_Pot=-462.07156543 Hartree, Unit is Angstrom
 O      1.4685069112     -0.8838815089      0.8690031428
 H      0.4997414342     -1.1821473258      0.8757069069
 C      2.2770598560     -1.9195956629      0.3077584055
 H      3.3430402447     -1.6728297299      0.5205328749
 H      2.2056242090     -1.9281637098     -0.7668447294
 H      2.0442854172     -2.8732776349      0.8119876061
 O      1.1775445269      1.5136079537     -0.4049475447
 H      1.3373242040      0.6521358408      0.0862908055
 C      1.5106496644      2.6240940922      0.4163497958
 H      1.3309026661      3.5018391068     -0.2110382499
 H      2.6174668068      2.6228760018      0.6740414699
 H      0.9556069376      2.5848142508      1.3321126635
 O     -1.1447339500     -1.3743418922      0.6765452266
 H     -1.4049783431     -0.6341130145      0.0579089554
 C     -2.1076871275     -1.3793339900      1.7315697774
 H     -1.8466997818     -2.0949047841      2.4589454575
 H     -3.0945776854     -1.6705437638      1.3971595465
 H     -2.1535280733     -0.4311923268      2.2781918686
 O     -1.4398569240      0.9311664332     -0.9040220786
 H     -0.5440825487      1.3188048278     -0.7156925188
 C     -1.5923214643      0.6142216094     -2.2941624088
 H     -2.6472924423      0.3696406092     -2.4267366610
 H     -0.8706363078     -0.1603494148     -2.5801663083
 H     -1.3959374330      1.4697251143     -2.9271360954
24
# ORCA AIMD Position Step 15, t=15.00 fs, E_Pot=-462.07157530 Hartree, Unit is Angstrom
 O      1.4689295703     -0.8852120596      0.8695790007
 H      0.5233458023     -1.1799416113      0.8713738070
 C      2.2806865543     -1.9170781565      0.3113130592
 H      3.3395054882     -1.6824581119      0.5289956697
 H      2.2288266331     -1.8957068213     -0.7746428301
 H      2.0382263810     -2.8715150455      0.8040184955
 O      1.1781491043      1.5165968560     -0.3991318724
 H      1.3410702124      0.6724840837      0.0862051409
 C      1.5176274928      2.6331222602      0.4186455465
 H      1.3453896986      3.5098648327     -0.2087603977
 H      2.6065991756      2.6283919053      0.6913728893
 H      0.9424173007      2.5675607452      1.3418340157
 O     -1.1430710238     -1.3746306969      0.6828002808
 H     -1.3860686286     -0.6408458059      0.0834494478
 C     -2.1127936038     -1.3842345978      1.7273607893
 H     -1.8364562931     -2.1116369005      2.4780410227
 H     -3.1043748573     -1.6977546190      1.4099949098
 H     -2.1645134362     -0.4475280988      2.2874523266
 O     -1.4424050992      0.9398178090     -0.9003633105
 H     -0.5288432277      1.3215000618     -0.6940385069
 C     -1.5896330089      0.6099406285     -2.2867870681
 H     -2.6451809565      0.3834394461     -2.4181890430
 H     -0.8620408288     -0.1667358223     -2.5507205493
 H     -1.3783784578      1.4572610129     -2.9373793275
24
# ORCA AIMD Position Step 16, t=16.00 fs, E_Pot=-462.06877157 Hartree, Unit is Angstrom
 O      1.4693373858     -0.8865000562      0.8701735451
 H      0.5494800358     -1.1775315623      0.8670735076
 C      2.2848347657     -1.9141353179      0.3153933678
 H      3.3310508908     -1.6925577897      0.5394285186
 H      2.2483824278     -1.8685871619     -0.7840021050
 H      2.0328694319     -2.8686758899      0.7896518147
 O      1.1786925053      1.5195231105     -0.3934130055
 H      1.3469127567      0.6938809245      0.0868142809
 C      1.5255323438      2.6416558893      0.4208803078
 H      1.3573482913      3.5186905354     -0.2015212292
 H      2.5877752723      2.6333500658      0.7065344657
 H      0.9280321068      2.5563679967      1.3517253661
 O     -1.1417197700     -1.3749778409      0.6892587407
 H     -1.3666622455     -0.6446657143      0.1074002758
 C     -2.1178273061     -1.3892929103      1.7236436897
 H     -1.8215789066     -2.1323159727      2.4971613212
 H     -3.1154029949     -1.7225379609      1.4186771140
 H     -2.1763157859     -0.4614953673      2.2928041066
 O     -1.4446557499      0.9486756233     -0.8964296898
 H     -0.5208575761      1.3189880712     -0.6790338708
 C     -1.5864042427      0.6061402229     -2.2789126906
 H     -2.6412589635      0.3916234871     -2.4111056184
 H     -0.8592319644     -0.1758102269     -2.5228028518
 H     -1.3599746518      1.4474718896     -2.9472539806
24
# ORCA AIMD Position Step 17, t=17.00 fs, E_Pot=-462.06513761 Hartree, Unit is Angstrom
 O      1.4703570724     -0.8875424372      0.8708273717
 H      0.5685499653     -1.1780412022      0.8631241129
 C      2.2892704814     -1.9106901653      0.3194822936
 H      3.3214046102     -1.7020494829      0.5531804357
 H      2.2643836475     -1.8474793548     -0.7910452578
 H      2.0276875817     -2.8662891536      0.7692811089
 O      1.1791778591      1.5228316926     -0.3879968760
 H      1.3559919254      0.7105089597      0.0913829519
 C      1.5335496856      2.6495151724      0.4234692531
 H      1.3663149486      3.5288616103     -0.1899380743
 H      2.5670936322      2.6373568601      0.7205165831
 H      0.9156878850      2.5528439905      1.3571356542
 O     -1.1405978065     -1.3757315107      0.6962161886
 H     -1.3490358969     -0.6398740686      0.1248632496
 C     -2.1227092093     -1.3952404931      1.7209988165
 H     -1.8049961843     -2.1506320348      2.5098468354
 H     -3.1252539607     -1.7442359002      1.4232628627
 H     -2.1890924465     -0.4722029354      2.2942687683
 O     -1.4464712415      0.9578620484     -0.8921136379
 H     -0.5225351009      1.3107237974     -0.6718061188
 C     -1.5824579138      0.6030174223     -2.2705995415
 H     -2.6363968650      0.3936898165     -2.4057631383
 H     -0.8623851399     -0.1881486388     -2.4968907257
 H     -1.3412475937      1.4383557223     -2.9550201364
24
# ORCA AIMD Position Step 18, t=18.00 fs, E_Pot=-462.06489965 Hartree, Unit is Angstrom
 O      1.4724838998     -0.8881742899      0.8715873880
 H      0.5727576039     -1.1839544417      0.8597288638
 C      2.2937390609     -1.9066533189      0.3230993633
 H      3.3148004404     -1.7099175426      0.5715170454
 H      2.2771430819     -1.8326865044     -0.7926711861
 H      2.0219822480     -2.8661915918      0.7437739508
 O      1.1796327297      1.5268403170     -0.3829941579
 H      1.3690829868      0.7185749372      0.1019778000
 C      1.5408126475      2.6565802821      0.4266433701
 H      1.3720902926      3.5409293988     -0.1749003344
 H      2.5521822841      2.6400265043      0.7349608103
 H      0.9076674855      2.5580898355      1.3551759695
 O     -1.1396787795     -1.3770153112      0.7037685556
 H     -1.3341163307     -0.6243412659      0.1341984156
 C     -2.1274125944     -1.4025921422      1.7198007392
 H     -1.7891845205     -2.1623025545      2.5119618439
 H     -3.1317161306     -1.7623788130      1.4239610023
 H     -2.2029771073     -0.4792825633      2.2919746999
 O     -1.4479311395      0.9674098304     -0.8873779164
 H     -0.5327498535      1.2977325531     -0.6722009733
 C     -1.5776991462      0.6006964698     -2.2619057185
 H     -2.6310791869      0.3896548650     -2.4022575133
 H     -0.8711957412     -0.2041973603     -2.4732469310
 H     -1.3227051577      1.4280476104     -2.9590550121
24
# ORCA AIMD Position Step 19, t=19.00 fs, E_Pot=-462.06845941 Hartree, Unit is Angstrom
 O      1.4756942770     -0.8883741167      0.8724947835
 H      0.5617777116     -1.1951484706      0.8571216522
 C      2.2980412026     -1.9020057789      0.3258971282
 H      3.3144450084     -1.7155351795      0.5951038679
 H      2.2871010973     -1.8241578837     -0.7874245316
 H      2.0151878175     -2.8698165496      0.7143571908
 O      1.1801377437      1.5315412599     -0.3783749620
 H      1.3858156870      0.7186700747      0.1178606537
 C      1.5465973042      2.6627591644      0.4304212651
 H      1.3748077250      3.5550631222     -0.1574702421
 H      2.5495722829      2.6410599872      0.7512855822
 H      0.9049482616      2.5724764938      1.3452565384
 O     -1.1390089401     -1.3785996807      0.7116611379
 H     -1.3214506580     -0.6014807289      0.1380786228
 C     -2.1318934222     -1.4115209825      1.7202329203
 H     -1.7759967297     -2.1653244305      2.5020593349
 H     -3.1333580114     -1.7766910400      1.4209143529
 H     -2.2179660380     -0.4829343359      2.2860401226
 O     -1.4493236758      0.9771783706     -0.8823009083
 H     -0.5465576195      1.2825808194     -0.6787234906
 C     -1.5721813177      0.5991963869     -2.2529425664
 H     -2.6252827570      0.3801007313     -2.4005133411
 H     -0.8849291085     -0.2239949206     -2.4520810205
 H     -1.3048318466      1.4154416883     -2.9582410614
24
# ORCA AIMD Position Step 20, t=20.00 fs, E_Pot=-462.07226219 Hartree, Unit is Angstrom
 O      1.4794129616     -0.8882832307      0.8735742105
 H      0.5433008517     -1.2086043911      0.8556588457
 C      2.3021432911     -1.8968538656      0.3277742502
 H      3.3208359100     -1.7190136679      0.6235050177
 H      2.2949029328     -1.8212657296     -0.7760250339
 H      2.0071674964     -2.8773889931      0.6823920095
 O      1.1808230348      1.5366226989     -0.3739721528
 H      1.4045072125      0.7153837732      0.1356100095
 C      1.5506625567      2.6680263180      0.4346747790
 H      1.3750669178      3.5708085262     -0.1387705519
 H      2.5609895540      2.6404193781      0.7695375058
 H      0.9069130832      2.5953801436      1.3293357756
 O     -1.1386447678     -1.3800351105      0.7194145693