30
 energy: -50.854311334048 gnorm: 0.000092988970 xtb: 6.3.3 (5b13467)
O         0.23703863916912   -0.73787525349844   -2.55592811507191
H         0.61560007742628   -1.43045457317922   -1.99386422107163
H        -0.69839429257031   -0.66185356512632   -2.25931191999094
O         1.22217911897149    1.01280797646909    2.15227073999614
H         1.81203488115837    1.20746935255548    2.88025504388028
H         1.75725652204912    0.50190472167681    1.48321706373650
O        -2.21494969242981    1.60690659138930    0.24267576018811
H        -1.32542892871220    2.05114619044495    0.15921734428544
H        -2.87001790420409    2.30391914887016    0.21512920075105
O        -2.14855946131645   -0.66895002142799   -1.34031538256250
H        -1.97050615442397   -1.33007687810322   -0.65484382776648
H        -2.24616878717510    0.17321101213997   -0.86553808201238
O         0.18228671654278    2.65133332379355    0.17139427542638
H         0.56702469620618    2.22746724461006    0.95732839533570
H         0.67193494076940    2.27649229992921   -0.58326922508769
O         2.55657968128860   -0.22209819866393    0.26946490219147
H         2.11153112662646   -1.05374493906151    0.03801926000787
H         2.37853896486028    0.37844492816544   -0.47657840212524
O        -1.28512960826411   -2.25687481374979    0.82884755806068
H        -1.76411294981459   -2.92277407081747    1.32212918113938
H        -1.27283349573081   -1.43728020152727    1.40584851228469
O        -1.30760389758939   -0.06562652652078    2.22640523029343
H        -0.40463185143086    0.29053948302313    2.30402246421457
H        -1.76712843513901    0.54155061727594    1.61874191023420
O         1.05984365744739   -2.44563407105345   -0.47953655163617
H         0.21148930984286   -2.39254868121404    0.01083093027761
H         1.32066370846458   -3.36674892236289   -0.48804652607653
O         1.59455659098823    1.33884388659227   -1.78135800949907
H         1.03551589577901    0.58243307053941   -2.12720193517060
H         1.99795376121278    1.74648977882967   -2.54737180422679
30
 energy: -50.850021025870 gnorm: 0.074859799947 xtb: 6.3.3 (5b13467)
O         0.23309262029570   -0.73392904708814   -2.55987356290647
H         0.59981835095684   -1.44623844754091   -1.97808137336588
H        -0.68261211438776   -0.64607131001460   -2.24352993706337
O         1.22612466851957    1.01675401558557    2.14832486493205
H         1.79625218040030    1.22325260099367    2.89603820872750
H         1.77304002088428    0.51768628519566    1.49899930155255
O        -2.21889580293039    1.60296019579104    0.24662194937195
H        -1.34121117422952    2.06693091047034    0.17499805313604
H        -2.88580036240811    2.31970278671250    0.19934661500136
O        -2.15250478631968   -0.66500427889836   -1.34426104922599
H        -1.95472381645933   -1.34585990091662   -0.67062689835735
H        -2.23038697551172    0.18899435511382   -0.84975554348587
O         0.17834039263004    2.65527893741818    0.16744834945046
H         0.55124305376525    2.21168364893667    0.94154748338765
H         0.68771842064511    2.29227574402738   -0.59905218078359
O         2.55263388394512   -0.22604401669779    0.26551932472770
H         2.09574798813766   -1.03796366419035    0.02223630864997
H         2.39432191898455    0.39422890229644   -0.49236301437088
O        -1.28907500194284   -2.26082014838340    0.83279306280301
H        -1.74833048489374   -2.93855813024752    1.30634697988419
H        -1.25705117873888   -1.45306309714606    1.39006558693451
O        -1.31154941191143   -0.06168048024030    2.23035090150527
H        -0.38884863525401    0.30632222397363    2.28824000792779
H        -1.78291241315348    0.55733359460285    1.60295861511453
O         1.06378959284486   -2.44168766094158   -0.47559136094849
H         0.19570575284933   -2.37676663942052    0.02661620094433
H         1.30488036794989   -3.38253298915260   -0.47226314018432
O         1.59060968762000    1.33489769650708   -1.77741199791083
H         1.05130203352403    0.59821792553672   -2.14298515036943
H         1.98217237508126    1.73070602441346   -2.56315480766680
30
 energy: -50.839068653678 gnorm: 0.136213008722 xtb: 6.3.3 (5b13467)
O         0.23132094115458   -0.73027135185795   -2.56313742074377
H         0.58499202170128   -1.46120938682445   -1.96363937909098
H        -0.66615280896503   -0.62991885653224   -2.22737757460943
O         1.23157593086911    1.01630579275882    2.14686689468316
H         1.78161729000932    1.23339621928261    2.91383502133532
H         1.79076200991730    0.52873419065938    1.51598401354791
O        -2.22109449762782    1.59807022386446    0.25258747342487
H        -1.35428007441467    2.08083173615758    0.19330878174926
H        -2.89769099325986    2.33249928300569    0.18628584694739
O        -2.15483280448659   -0.66091224246846   -1.34785969098360
H        -1.93810490346571   -1.36151906870636   -0.68752664044265
H        -2.21271960691271    0.20277946280860   -0.83393942981977
O         0.17711716449710    2.65681928720485    0.16664637575531
H         0.53797347037609    2.19256254532239    0.92935498160957
H         0.70532187182302    2.30662900960811   -0.61051053839481
O         2.55017372832007   -0.23292992194390    0.26266896669099
H         2.08080483963547   -1.02586011262544    0.00682679500804
H         2.41210834226524    0.40630206925632   -0.50496668246738
O        -1.29229937032702   -2.26719384724781    0.83498046176521
H        -1.73309348099229   -2.95768646082424    1.28946338313982
H        -1.24080258273980   -1.47052211793185    1.37491008415730
O        -1.31418716802775   -0.06085294635136    2.23466953300218
H        -0.37366445833268    0.31733662750830    2.27365274997554
H        -1.79615659421161    0.56882653873457    1.58982607946363
O         1.06806693173389   -2.44020165357565   -0.47237982194863
H         0.18213781861885   -2.36334908981569    0.04039964183764
H         1.28910113449443   -3.39904676752205   -0.45830185251766
O         1.58938678079360    1.33012723146365   -1.77106570931889
H         1.06829192463292    0.61207117244178   -2.15695893658869
H         1.96923181966468    1.71448064423787   -2.57526985522226
30
 energy: -50.825549553893 gnorm: 0.180711638324 xtb: 6.3.3 (5b13467)
O         0.23023297732804   -0.72733614311944   -2.56595183750470
H         0.56951200516222   -1.47376654078402   -1.95132222729852
H        -0.65171990647143   -0.61338661304069   -2.21109105487856
O         1.23693079148735    1.01618392699998    2.14594498553543
H         1.76634284248586    1.24320494797464    2.93064309274319
H         1.80942019201161    0.53874807100211    1.53170524922765
O        -2.22400860084426    1.59408091603745    0.25847299183424
H        -1.36674339727153    2.09443244139839    0.21140734463046
H        -2.90716024470975    2.34206057540120    0.17355014257508
O        -2.15705260017391   -0.65652620094866   -1.35084008180126
H        -1.92212702272436   -1.37556291008793   -0.70543114376842
H        -2.19499080443557    0.21379773031860   -0.81946269926473
O         0.17611496887618    2.65825826831003    0.16522442755387
H         0.52512419708070    2.17316998953052    0.91789646623984
H         0.72145999381273    2.32170100342335   -0.62004122096647
O         2.54784491003284   -0.23900946455759    0.25936992997261
H         2.06527242390872   -1.01501250711155   -0.00887200446747
H         2.43014741868596    0.41641679557518   -0.51524137662377
O        -1.29512722203786   -2.27375212965136    0.83621879706957
H        -1.71905388259725   -2.97822689625130    1.27418317879463
H        -1.22495276902802   -1.48555451881301    1.36206233435055
O        -1.31644493608424   -0.05915678802112    2.23835754719557
H        -0.36172434282362    0.32704398825536    2.25905360809486
H        -1.80756398457403    0.57783761833061    1.57924424688612
O         1.07171387603161   -2.43934813238019   -0.46876421894247
H         0.17134834922345   -2.35021736160705    0.05257974726089
H         1.27283543598221   -3.41283946407939   -0.44447064954515
O         1.58866719361699    1.32597919035286   -1.76503252434602
H         1.08322182183321    0.62324638856971   -2.17099013093675
H         1.95645288333536    1.69859198925777   -2.58613688805072
30
 energy: -50.813732607467 gnorm: 0.206540192952 xtb: 6.3.3 (5b13467)
O         0.23001027756570   -0.72535646505504   -2.56817634541580
H         0.55334104377713   -1.48320548794053   -1.94180773955325
H        -0.63997593030098   -0.59628065803899   -2.19462914793576
O         1.24213614678369    1.01651419404708    2.14576475165336
H         1.75021039048032    1.25253179063889    2.94604001336797
H         1.82940792963258    0.54735150040208    1.54571612148266
O        -2.22781128362246    1.59127959859286    0.26423126815132
H        -1.37843519688577    2.10755818688618    0.22921802774880
H        -2.91361941714984    2.34745368129767    0.16131272931587
O        -2.15908817863216   -0.65178420037722   -1.35299835186019
H        -1.90707502419478   -1.38735653923714   -0.72465344228731
H        -2.17727253306731    0.22118078964810   -0.80677953024444
O         0.17542045463786    2.65957210436550    0.16300570433250
H         0.51280645543352    2.15344683385271    0.90732255177020
H         0.73560802942305    2.33765882026512   -0.62700884357145
O         2.54571330794785   -0.24403637721891    0.25548612044819
H         2.04898155512219   -1.00575048054826   -0.02494446897238
H         2.44842870556023    0.42392149064277   -0.52245325895995
O        -1.29746291353166   -2.28062891616564    0.83614695748036
H        -1.70649553367037   -3.00057275445903    1.26099583786393
H        -1.20959596933437   -1.49712631939303    1.35251659834551
O        -1.31819360003084   -0.05634328361151    2.24120592228916
H        -0.35400686932067    0.33502421491541    2.24454270516387
H        -1.81662305110225    0.58366308442096    1.57197117782325
O         1.07452020740007   -2.43933199853389   -0.46461917648784
H         0.16412509208788   -2.33751046483800    0.06269917870174
H         1.25602150468179   -3.42300261719720   -0.43085813583798
O         1.58863625580600    1.32268879442464   -1.75942922614874
H         1.09523523025703    0.63060512342932   -2.18512344916063
H         1.94399679062768    1.68329349109690   -2.59528020828848
30
 energy: -50.806576631450 gnorm: 0.213724161809 xtb: 6.3.3 (5b13467)
O         0.23069978884948   -0.72447744569410   -2.56969959076349
H         0.53658266122079   -1.48912204815942   -1.93554088248397
H        -0.63119298475945   -0.57844918897330   -2.17806069430769
O         1.24715567266267    1.01736730971219    2.14644313370282
H         1.73311142263477    1.26126497642745    2.95971868972859
H         1.85093506981159    0.55435286855795    1.55780300007456
O        -2.23256687601904    1.58985735732993    0.26982029331599
H        -1.38928561038451    2.12001245589305    0.24667582769804
H        -2.91682698060749    2.34815063084500    0.14972020419831
O        -2.16086163387652   -0.64666359403994   -1.35421210848884
H        -1.89318563623916   -1.39644117212836   -0.74534073760359
H        -2.15967917048528    0.22439207583645   -0.79618696746395
O         0.17510182190859    2.66073922535779    0.15991777292882
H         0.50105717555004    2.13343595825328    0.89760566722318
H         0.74740420103994    2.35455195811958   -0.63101812861349
O         2.54381679232585   -0.24789507660495    0.25092905367035
H         2.03193052156185   -0.99811576728904   -0.04138052863037
H         2.46687876718785    0.42840080766714   -0.52615680146480
O        -1.29928838940514   -2.28794488406917    0.83456094625367
H        -1.69541596304853   -3.02470034775737    1.25009820947550
H        -1.19480733597389   -1.50467342415102    1.34692827663491
O        -1.31934848133904   -0.05227264036847    2.24306945177153
H        -0.35109315094137    0.34101153837282    2.23025434849766
H        -1.82304056348463    0.58589200454335    1.56847538484050
O         1.07633261526309   -2.44026981810369   -0.45986469337602
H         0.16093536214412   -2.32535794780932    0.07048364057849
H         1.23870096969725   -3.42899252388116   -0.41755080430046
O         1.58938508810674    1.32037205055455   -1.75437314372795
H         1.10379473474112    0.63342384599161   -2.19924988346343
H         1.93207630188894    1.66889029154117   -2.60237417854779
30
 energy: -50.804950493000 gnorm: 0.204550711303 xtb: 6.3.3 (5b13467)
O         0.23221626015766   -0.72475751886514   -2.57042394164687
H         0.51944244413075   -1.49137720736632   -1.93275809985467
H        -0.62522836327964   -0.55981203520352   -2.16160599962524
O         1.25198506062168    1.01874641852601    2.14798985090130
H         1.71505539548240    1.26933973122904    2.97152006115058
H         1.87395506361079    0.55978076617263    1.56802495531221
O        -2.23824557754462    1.58991701823854    0.27520930793148
H        -1.39931050597160    2.13158381394272    0.26372259085592
H        -2.91684111402647    2.34398564015671    0.13887475501549
O        -2.16230153309786   -0.64116786661191   -1.35443962557662
H        -1.88063281561005   -1.40255796557100   -0.76747285101137
H        -2.14234769814530    0.22319835310101   -0.78782605417614
O         0.17520533495641    2.66173301235536    0.15598874033790
H         0.48985006725714    2.11329469117288    0.88855267213733
H         0.75665649408632    2.37232968216794   -0.63191095244805
O         2.54215420509862   -0.25059810421398    0.24565012643954
H         2.01430691187454   -0.99186743437466   -0.05805968948193
H         2.48538382009435    0.42967210293673   -0.52617948644832
O        -1.30064296465194   -2.29576514123925    0.83144065080006
H        -1.68555473048142   -3.05013981420023    1.24141332495741
H        -1.18070058736738   -1.50829591458261    1.34549096959909
O        -1.31986760379741   -0.04690208551927    2.24386181651386
H        -0.35320245095393    0.34488700463724    2.21633439898118
H        -1.82671011719521    0.58436534560261    1.56897072493968
O         1.07704733818481   -2.44218839751365   -0.45446082996930
H         0.16198340765516   -2.31387397286872    0.07580906079624
H         1.22099628560987   -3.43064097430174   -0.40462028077280
O         1.59089477086646    1.31900046654912   -1.75000223482349
H         1.10876370967059    0.63151446973403   -2.21301066228229
H         1.92093871111511    1.65571932076342   -2.60725614984022
30
 energy: -50.807734595515 gnorm: 0.182794254785 xtb: 6.3.3 (5b13467)
O         0.23436592219834   -0.72616888137157   -2.57026516670198
H         0.50220120741751   -1.49007994734700   -1.93349641148282
H        -0.62159581850027   -0.54037754325837   -2.14563220131681
O         1.25665630863916    1.02058827031665    2.15030819777297
H         1.69616590133053    1.27674533506093    2.98145141018064
H         1.89815018910783    0.56387065002395    1.57669206029492
O        -2.24473296984964    1.59147275314096    0.28038442584939
H        -1.40859297162086    2.14205910656826    0.28030440120236
H        -2.91400168540492    2.33514091147278    0.12881619531678
O        -2.16335009607270   -0.63531826735507   -1.35371717665783
H        -1.86951700656034   -1.40566096061505   -0.79087257808901
H        -2.12542102436689    0.21764964949275   -0.78167974876307
O         0.17574832886928    2.66252135474681    0.15133609010228
H         0.47911898814734    2.09328272140845    0.87984700360200
H         0.76334992279747    2.39085640449906   -0.62976416254664
O         2.54068653135689   -0.25226965465391    0.23964182117671
H         1.99646539762107   -0.98654809959284   -0.07476284710311
H         2.50380893673908    0.42778644728034   -0.52261471479005
O        -1.30159254274299   -2.30407565585372    0.82693294344899
H        -1.67648051841527   -3.07606713955804    1.23466424646605
H        -1.16746791629974   -1.50876005181773    1.34793231407012
O        -1.31974982642087   -0.04028011287549    2.24355560292034
H        -0.36021029315029    0.34667493728869    2.20292324909995
H        -1.82770079894882    0.57915649426247    1.57342944855594
O         1.07660723654791   -2.44502470785831   -0.44840494358051
H         0.16724689905619   -2.30314915958297    0.07868077327775
H         1.20309054324836   -3.42816215750060   -0.39211354925339
O         1.59304787566811    1.31841350797553   -1.74647537021860
H         1.11038171054580    0.62519861791679   -2.22579419947765
H         1.91084624236817    1.64412644297866   -2.60992728492443
30
 energy: -50.812509115044 gnorm: 0.152563548814 xtb: 6.3.3 (5b13467)
O         0.23688338808168   -0.72859669114552   -2.56916755658550
H         0.48519906135469   -1.48559478446315   -1.93758141264900
H        -0.61959897295758   -0.52024192822878   -2.13060593051326
O         1.26122933696115    1.02277670266387    2.15321262253196
H         1.67666736665745    1.28352764161149    2.98969142433025
H         1.92298067580781    0.56700900194752    1.58429244147115
O        -2.25183261700301    1.59444095410597    0.28535521158659
H        -1.41726123686632    2.15124098397181    0.29637090067502
H        -2.90894436680328    2.32216538887372    0.11949793580106
O        -2.16396983783842   -0.62915083856943   -1.35215687874888
H        -1.85985709949521   -1.40592361827934   -0.81522438149188
H        -2.10903228659967    0.20807443037042   -0.77756252890000
O         0.17670949742322    2.66307213489461    0.14615252250426
H         0.46878575140231    2.07372948598121    0.87110743234864
H         0.76765839738463    2.40992428646539   -0.62489318392782
O         2.53934723305757   -0.25312347476507    0.23294784824121
H         1.97887079075510   -0.98158456996667   -0.09120721757870
H         2.52201593587117    0.42304058023879   -0.51582870145810
O        -1.30220380708700   -2.31279141994924    0.82130089164332
H        -1.66769753305184   -3.10146868711586    1.22946674120738
H        -1.15537899326622   -1.50730574362746    1.35362532112265
O        -1.31903401073004   -0.03254800762254    2.24218890838113
H        -0.37164207014964    0.34654612498561    2.19014148787459
H        -1.82626918995570    0.57057494161340    1.58157022261403
O         1.07500390759206   -2.44862581823307   -0.44173203180642
H         0.17648959565851   -2.29323829324180    0.07922664106976
H         1.18520993485497   -3.42216310623403   -0.38004545810797
O         1.59566020142848    1.31836047613426   -1.74395027046320
H         1.10915790631210    0.61516410861305   -2.23682976813302
H         1.90205815927732    1.63444535870384   -2.61054780695113
30
 energy: -50.816334056529 gnorm: 0.119849124035 xtb: 6.3.3 (5b13467)
O         0.23946948622549   -0.73183652962861   -2.56712848125265
H         0.46882711925704   -1.47857257950781   -1.94459556039028
H        -0.61847412383631   -0.49957405457024   -2.11702570926858
O         1.26577637901561    1.02516280388462    2.15645603236005
H         1.65686284676847    1.28978613950818    2.99657966719013
H         1.94777479428957    0.56965808837799    1.59139837818852
O        -2.25926302596989    1.59862564652496    0.29016291856041
H        -1.42546616107848    2.15896689604324    0.31187619959769
H        -2.90263786818642    2.30601586116002    0.11075425527035
O        -2.16414997601545   -0.62271854102499   -1.34994537739954
H        -1.85158540073886   -1.40373886912595   -0.84010028321420
H        -2.09328820236476    0.19508852613446   -0.77510125946953
O         0.17801870905994    2.66336166404807    0.14069200157796
H         0.45878461124564    2.05499086373475    0.86194828512492
H         0.76995965261668    2.42926470353079   -0.61785903430701
O         2.53805582746242   -0.25344311499706    0.22567824343085
H         1.96202700755289   -0.97638970025378   -0.10709136930408
H         2.53988227234380    0.41599881862460   -0.50647853244828
O        -1.30253089359621   -2.32178538439905    0.81486270470887
H        -1.65873583653511   -3.12531208438274    1.22541032382958
H        -1.14474444672213   -1.50536775722193    1.36175140759672
O        -1.31779882149873   -0.02394806013648    2.23987870111385
H        -0.38664300580484    0.34482717144601    2.17807581080856
H        -1.82289494928115    0.55919082406610    1.59282215197055
O         1.07228506974542   -2.45275107820646   -0.43451817108436
H         0.18925072975996   -2.28414283996954    0.07770391743949
H         1.16760710167306   -3.41365012680038   -0.36839347848368
O         1.59851724846796    1.31855053388983   -1.74255192802581
H         1.10574231728255    0.60228607470443   -2.24532441291875
H         1.89481661119063    1.62698076089855   -2.60942818922809
30
 energy: -50.816484191634 gnorm: 0.100812882650 xtb: 6.3.3 (5b13467)
O         0.24182115302434   -0.73559061155330   -2.56422388960691
H         0.45352192445228   -1.46999397758124   -1.95383645779207
H        -0.61750187366772   -0.47859342053442   -2.10535883137642
O         1.27036725145206    1.02758573844995    2.15976014093516
H         1.63710276613406    1.29566377164990    3.00258528697825
H         1.97182577066909    0.57228600888713    1.59858221324074
O        -2.26665487493514    1.60370687522104    0.29488950486044
H        -1.43335993866988    2.16512692240542    0.32678042956048
H        -2.89641761987684    2.28808821341466    0.10226294257173
O        -2.16391219374213   -0.61609734718773   -1.34734188936476
H        -1.84454768546855   -1.39970812516532   -0.86499334850889
H        -2.07825072759058    0.17960849675943   -0.77371201170019
O         0.17954958627063    2.66338248701264    0.13525636627719
H         0.44907872774538    2.03740555089647    0.85202991439007
H         0.77084507177145    2.44856209454065   -0.60946847044021
O         2.53672935777260   -0.25356750063303    0.21802307032451
H         1.94641120201473   -0.97044262554624   -0.12213731368427
H         2.55732235711132    0.40751447197752   -0.49552829368357
O        -1.30261243131474   -2.33091758785043    0.80794122139846
H        -1.64920979459426   -3.14667953636228    1.22211485630494
H        -1.13586818524986   -1.50433348997375    1.37144524952219
O        -1.31616129462438   -0.01483560586322    2.23683898092394
H        -0.40393480471760    0.34201177409012    2.16676399321743
H        -1.81833548056503    0.54587221232264    1.60627232888678
O         1.06856719481456   -2.45708279540898   -0.42688646460651
H         0.20481310072911   -2.27578790877292    0.07451869082040
H         1.15054293143652   -3.40400716065602   -0.35709596499790
O         1.60140335058043    1.31869321986830   -1.74234753313488
H         1.10082320630872    0.58748291741348   -2.25058172576082
H         1.88933584253557    1.62199569961724   -2.60701262514025
30
 energy: -50.811396726195 gnorm: 0.120247098787 xtb: 6.3.3 (5b13467)
O         0.24365171644929   -0.73946735473968   -2.56062536487686
H         0.43975479899123   -1.46119839999894   -1.96428926637151
H        -0.61607339985167   -0.45754844350009   -2.09599681494174
O         1.27506100076905    1.02989091036210    2.16284584902292
H         1.61774531054285    1.30132784330078    3.00824978927658
H         1.99447086241111    0.57531592849796    1.60635817798883
O        -2.27356266056908    1.60924881522994    0.29966317108042
H        -1.44107648256076    2.16967878154829    0.34105110531864
H        -2.89195822504756    2.27017240313802    0.09352115090900
O        -2.16331432264630   -0.60939322295363   -1.34467185345184
H        -1.83851192987117   -1.39461070583688   -0.88936009526618
H        -2.06391840594848    0.16284866498218   -0.77258575093024
O         0.18111941273107    2.66314751356826    0.13017876103282
H         0.43966765355972    2.02125770952429    0.84109465022112
H         0.77110761607470    2.46747552049087   -0.60074717204785
O         2.53528937436937   -0.25387700255080    0.21025589839706
H         1.93242286647407   -0.96334065579444   -0.13612243136236
H         2.57431052906768    0.39872514009507   -0.48423451804213
O        -1.30247332868295   -2.34005218424073    0.80083191460207
H        -1.63884604860002   -3.16485225345177    1.21926409191187
H        -1.12900940972903   -1.50539509354575    1.38188839920249
O        -1.31427093149285   -0.00568663706409    2.23339694241052
H        -0.42178865742303    0.33876301637409    2.15617976484186
H        -1.81368101652576    0.53181238410211    1.62062149646622
O         1.06405190665967   -2.46125517822880   -0.41901362125725
H         0.22215734226660   -2.26799486274647    0.07025371517039
H         1.13426450750548   -3.39490638494732   -0.34605643033426
O         1.60412013626660    1.31852382043117   -1.74333685220548
H         1.09506565296848    0.57163086427974   -2.25207287256213
H         1.88579249355413    1.61970086509065   -2.60384782879741
30
 energy: -50.801866494849 gnorm: 0.168713499607 xtb: 6.3.3 (5b13467)
O         0.24470590412910   -0.74299620318301   -2.55659709572050
H         0.42800490105907   -1.45384593893858   -1.97465876945813
H        -0.61371815890813   -0.43669863725978   -2.08923131312767
O         1.27990460438625    1.03194492119798    2.16546338379097
H         1.59911228644880    1.30694206717595    3.01410371278461
H         2.01514476757573    0.57909602092611    1.61515043905845
O        -2.27951352330513    1.61475164766751    0.30465090535262
H        -1.44871324343118    2.17265931781075    0.35466374449260
H        -2.89109419361576    2.25423520938095    0.08387324496079
O        -2.16244922885581   -0.60274361585356   -1.34230963034111
H        -1.83319007985584   -1.38934322058630   -0.91267227089613
H        -2.05021306323515    0.14626614890579   -0.77070822385149
O         0.18250234045899    2.66268866458199    0.12579677522883
H         0.43058767790969    2.00674801405824    0.82898887854801
H         0.77168295401591    2.48567306077521   -0.59285775780735
O         2.53366582851662   -0.25476777863774    0.20271549585722
H         1.92034838660931   -0.95482777832946   -0.14890028881765
H         2.59089953865044    0.39097797771998   -0.47405498418810
O        -1.30212718606869   -2.34906170040875    0.79378678256864
H        -1.62749015171124   -3.17935525967399    1.21662339822982
H        -1.12436157111806   -1.50948813786029    1.39235501715170
O        -1.31229567860737    0.00291646690383    2.22999137630242
H        -0.43807642196266    0.33588569801184    2.14622220310566
H        -1.81036138241101    0.51849782738619    1.63420501024827
O         1.05904071761213   -2.46491091652786   -0.41113300004284
H         0.23992428923441   -2.26045525372001    0.06569217263877
H         1.11897864983107   -3.38810835484911   -0.33515699060870
O         1.60649714107337    1.31781704258260   -1.74545898023674
H         1.08908234574910    0.55552555554996   -2.24946281362739
H         1.88431410355600    1.62024248933158   -2.60053030980904
30
 energy: -50.791611665730 gnorm: 0.215898401439 xtb: 6.3.3 (5b13467)
O         0.24477611774577   -0.74567577589530   -2.55245925877434
H         0.41870431838593   -1.44973901244605   -1.98352116457732
H        -0.61010833269460   -0.41630093094898   -2.08524536384448
O         1.28493549870223    1.03364779536502    2.16742138094994
H         1.58144865084087    1.31263327744389    3.02056776715852
H         2.03341166248392    0.58388461054906    1.62527921709921
O        -2.28411087659762    1.61976133529797    0.31002617447812
H        -1.45631400099889    2.17419239170063    0.36760148510955
H        -2.89541956499796    2.24197433000444    0.07263841898702
O        -2.16143524184621   -0.59630421212704   -1.34064200129869
H        -1.82827562943602   -1.38482226324473   -0.93447471086884
H        -2.03698330075009    0.13141055566421   -0.76695001715338
O         0.18346097535912    2.66205031511015    0.12240893312085
H         0.42190810380827    1.99397234902487    0.81567458324545
H         0.77352131519265    2.50287884606673   -0.58693985962620
O         2.53180265755971   -0.25660044195247    0.19575552817526
H         1.91033675539040   -0.94480871459023   -0.16041305067759
H         2.60722017993164    0.38563791567677   -0.46643657368483
O        -1.30157778427324   -2.35782341591587    0.78700782079412
H        -1.61510134865801   -3.18997734426062    1.21404885731470
H        -1.12204566508409   -1.51728269288235    1.40222792052073
O        -1.31039898717593    0.01034638656430    2.22712812302361
H        -0.45048901176171    0.33424095511480    2.13671935151432
H        -1.81001824372269    0.50754362224232    1.64516983905652
O         1.05393569300653   -2.46778391586383   -0.40352696962439
H         0.25643240588931   -2.25272081377105    0.06181032133419
H         1.10482443500913   -3.38514299275500   -0.32428222002313
O         1.60839880604882    1.31639502578050   -1.74861176096306
H         1.08342123921321    0.53986867687316   -2.24260849247267
H         1.88496388815837    1.62368612145587   -2.59763039462924
30
 energy: -50.785782114793 gnorm: 0.239548981595 xtb: 6.3.3 (5b13467)
O         0.24372402007722   -0.74706719428174   -2.54851222081305
H         0.41215320358975   -1.45045859197229   -1.98962572109951
H        -0.60505478307216   -0.39659854646814   -2.08411298993747
O         1.29018307691662    1.03494236906853    2.16861129297824
H         1.56489658611422    1.31846039475016    3.02786151029516
H         2.04898457481222    0.58984343031980    1.63695548562237
O        -2.28717225022259    1.62400678920986    0.31591140710589
H        -1.46385281875929    2.17449308184339    0.37985367576416
H        -2.90574875926714    2.23426595345184    0.05933939362750
O        -2.16039533943971   -0.59021461990860   -1.34000784364736
H        -1.82349471358714   -1.38185605205500   -0.95444038382121