420
 energy: -712.732446338462 gnorm: 0.002913595727 xtb: 6.4.0 (d4b70c2)
O         5.00744723874950   -0.58569908597802    7.40544566311812
H         4.39838319117848   -0.63371832328749    8.18150023978459
H         5.36067899346552    0.31441233311635    7.41271594845999
O        -2.62867456869960   -3.16670945450547   -3.42537295609554
H        -3.52189975444016   -2.76450186185987   -3.49024554781428
H        -2.05850754405223   -2.57272394678693   -3.94645896098807
O        -5.29897813326163   -1.19013029487613   -7.62404044591929
H        -4.66754665655177   -0.85718539748745   -6.94534571533094
H        -5.24455740867949   -0.59042826222491   -8.36674131434162
O         7.28792036240112    0.35430106143549    1.26860050037522
H         7.44810256520738   -0.61697292730628    1.24514969284457
H         7.33892529410070    0.60562132856356    0.33398759639024
O        -0.78656612912612    1.18726285910208   -6.28651778962150
H        -1.35377129684183    0.68387882315346   -6.87068865524744
H        -0.77341590016392    2.12519209054571   -6.61967993415891
O        -6.22528245388563    3.79937531915857   -5.28170594631086
H        -5.89571487084102    2.91854779869045   -4.94935143894823
H        -7.15891318748736    3.69707301598469   -5.46174020797183
O        -2.33017507248279    3.49894894189313    6.02962656261621
H        -2.97635025509770    3.93206235099210    5.44103664299526
H        -1.83144747339401    2.90253487682315    5.42893875049428
O        -4.81834760228253    5.41222078739715   -0.62321083592769
H        -5.16852150497983    5.36925635661493   -1.52571764762812
H        -4.15909961087791    6.11755543154796   -0.64976538186755
O        -0.55253551557432   -7.59079200326091    3.13446376094081
H         0.11190975987490   -7.21720390921776    2.52245547613174
H        -1.17398917109793   -8.04491237925984    2.56438714810367
O         3.53896102408311    2.15082909831367    4.66562566086286
H         3.38321240192235    1.22724085644303    4.93608280488922
H         3.50972121719470    2.19287098584981    3.69452524528693
O         5.41284540627994   -4.02871764285948   -3.26566476028477
H         4.50591337671704   -4.06928362621956   -2.86366737712201
H         5.81191152682979   -4.87752176814457   -3.05873927781699
O        -5.54536418615324    0.63221276967272    3.87776716372635
H        -5.37849166785439    0.22206733955916    4.73521915644450
H        -5.76215211369191   -0.08826351827100    3.26028955555666
O         3.82730757171005    3.90337008659300   -2.75147621946513
H         4.78737223300337    3.85255207535807   -2.68828760924162
H         3.53035849726927    2.98420522820795   -2.68300696361020
O         1.38144314093641   -6.47472347038533    1.58185564054879
H         2.07772526550054   -7.08037290127583    1.32561075241042
H         1.80222127232501   -5.62537844733464    1.80384331279985
O        -3.29589917953686   -2.02341314041010    4.78741172130624
H        -3.20386382830607   -2.99444938480047    4.75340910055263
H        -4.09640314882258   -1.80715851873208    5.27911139091083
O         5.43581227882756   -4.26478884430399    4.58313207288861
H         5.95769824773407   -4.21321257297869    3.76325562663230
H         5.92269452410133   -3.72452759233322    5.24926910182791
O        -5.78867578184624    3.15433056810108    0.98475341061883
H        -6.05217934244064    3.31167069187164    1.92084867063651
H        -5.48751325413813    3.98867514909788    0.60512136930076
O         4.25569399617483   -2.97605444809032    0.43198522459011
H         3.62982487609602   -3.50423603355948    0.97041334910396
H         4.85600007768567   -2.58084869948263    1.09350185208678
O        -1.79607544361932   -3.32379525592904   -6.26656093759199
H        -1.35328377400909   -4.14464492512051   -6.03162927359574
H        -1.10785294828165   -2.74009531363466   -6.60352845699679
O        -0.52197321415913    3.08178490525292   -1.89662642774639
H        -1.39879165131224    3.28794804415724   -1.51883196949528
H         0.08743457173728    3.35410337405095   -1.18455481230090
O         2.59567277903161    1.56931042010842   -0.09997143286370
H         1.63139549476240    1.62652349843337   -0.21593275373705
H         3.01081998081063    1.46851686883859   -0.98102334288919
O        -2.25719046037544   -3.85788985545515   -0.86280659001677
H        -2.96516333219285   -3.41864776572962   -0.36355479162757
H        -2.35483813828473   -3.53492281273070   -1.78061426952310
O        -4.94467120603323   -2.13099814631351   -4.08888476517977
H        -4.49721006850485   -1.54263003885433   -4.73204448530431
H        -5.43058959161106   -2.81794180292522   -4.59362121438963
O         3.43359021642211    4.68639224296654   -0.16706806192739
H         2.50607608909418    4.43821280376858    0.02510798900249
H         3.55040650909505    4.56265037486873   -1.12641668207032
O        -4.29536642265089   -3.79373453831367   -7.21253697444455
H        -3.42587941933952   -3.56653604582023   -6.82835206322803
H        -4.63430618486415   -2.96610973596176   -7.58185557537306
O         0.68745195146699   -1.15310526976532    4.51884344696560
H        -0.13338576828296   -1.21501332668094    5.02263334822056
H         0.69964548457188   -1.84830565571560    3.84484960101006
O         0.10915137634087   -2.92532223462311   -2.60357968647144
H        -0.17886023951173   -3.76715382023234   -2.98990090770422
H         0.67534487866426   -2.45412174636831   -3.23196708648794
O        -8.98034025140686   -2.45287286477001   -3.10537845112483
H        -8.73329248747488   -2.38439968520453   -4.03091370740463
H        -8.66541316516131   -1.64856166395710   -2.67490171622192
O        -7.36229421096072   -5.79792581262579    1.06252915589233
H        -7.20099263757504   -5.16836054316204    1.79098950328995
H        -7.87056987042813   -5.33766940754399    0.38395036813752
O         6.34072418656440    1.58417401442863    4.54580225921182
H         5.57179976138707    1.43924731881309    3.95729244470067
H         6.91932575801018    2.17684387783302    4.01548040087006
O         1.40505699738530   -6.05041199933960    7.35427952415141
H         1.45275524756195   -5.13928708432004    6.98468753946590
H         2.16348775061975   -6.14659299760917    7.92977645360437
O        -0.16500448786900    3.75558544807396    2.66936432518750
H         0.29193611333036    3.58755625570048    3.51953917394307
H        -0.30962287666376    4.70995518510969    2.62184707571882
O        -2.91678946620975   -6.29569209198641   -6.26396225303912
H        -3.28832519791537   -6.16839965065755   -5.36811195186823
H        -3.39170467825542   -5.67340434613403   -6.82426872898565
O        -2.94198653609642    1.24816989768036    7.32840255603929
H        -2.79359710280729    2.10904902119343    6.86109466771991
H        -2.77023308091539    1.42174180333070    8.25386677746020
O        -1.28799551412212   -1.27407460740705    1.32529995601664
H        -0.45837448487407   -1.63650808220312    1.69733258989781
H        -1.67143156745826   -0.65803498822286    1.97332060872973
O         1.04739251218578   -0.99740393080828   -0.56876775330840
H         1.90506785892941   -1.03502619061308   -1.01920133246195
H         0.88206603126130   -1.88841173769797   -0.24059384077205
O        -2.52588784833187    3.86214472279511   -0.25497492596213
H        -2.53521490231674    3.46337488912968    0.62585976798870
H        -3.38089761516902    4.29792292416064   -0.35964678702443
O         7.62882885578957    0.26142438114495   -1.46742595013874
H         7.05467361104254   -0.52740333034236   -1.56921210542421
H         8.52963944659921   -0.05408919229638   -1.53643267721499
O        -1.00966825838647   -4.92426451943252    1.49783547162421
H        -0.86277244651921   -5.85128403616716    1.21750246018780
H        -0.58203610481195   -4.79468124484910    2.36544997188029
O         0.69098269647719   -3.77606422649151   -0.14519193233439
H        -0.12028487560322   -4.07526857400824    0.32133271486802
H         0.41082429584679   -3.50101407981855   -1.04141351865857
O        -6.17462132214306   -4.92581692915819   -3.03650141833026
H        -6.50729440957316   -4.58893274963568   -3.88184674482555
H        -5.32336120477435   -5.34282495125429   -3.27469179212260
O        -2.36609683934451    2.13331461058129   -4.23989573468927
H        -1.66075555636102    1.76371432915169   -4.79320738400729
H        -2.72750822456965    1.39074826759536   -3.71546734589049
O         3.37795534931602   -1.53108510481215   -1.85668698145855
H         3.26280925956269   -2.49040256483169   -1.74733665646806
H         2.86105698049622   -1.32455626552600   -2.67723011511116
O         0.69233475061217    1.00116707955517    2.92177843750842
H         0.90451996893684    0.16520140269764    3.37693799077852
H        -0.01132681547637    1.40400568775342    3.46533406201734
O        -0.92248686568383    3.72393244920122   -6.85594897861614
H        -0.54331151039017    3.97884671789514   -5.99341312141223
H        -1.86884148833669    3.91388586160357   -6.77675030758933
O         1.72589486116468   -0.94621889703083   -3.77496848595536
H         1.11246452413187   -0.35612261725793   -3.28592007496857
H         1.94641593309942   -0.41214709940701   -4.56781573662043
O         2.93677016350218   -8.03697910681039   -0.43907920512067
H         2.51677253777344   -8.85434944111945   -0.70500865436386
H         2.36000795340382   -7.30845922194816   -0.76594243820505
O         1.03675812471361   -2.24211601951806    2.14581951742346
H         1.73770798333137   -1.59661923038175    1.90360255090864
H         1.16474865380867   -3.02163300730728    1.59232664263969
O        -3.52383087987205   -4.82218684495455    2.17854029221328
H        -4.08189186524421   -5.32547631487238    1.54234324439735
H        -2.59816011761873   -4.88615147167196    1.83893508540433
O        -0.83775728611409   -7.33339621378413    0.24778816707303
H        -0.01152739199286   -7.09896912563306   -0.19212444881230
H        -1.55828319879564   -7.10967824132845   -0.37359861025205
O         4.89715865988279   -7.16264768638914    1.33670222947047
H         4.55387827465031   -7.00323029640500    2.23149930024755
H         4.22526403021746   -7.63916224851664    0.83385659003074
O        -0.03305601100770    1.24924476596564    0.36215461207781
H         0.20842218423758    0.36625989827033    0.02110676231317
H         0.13457079328861    1.19212706719961    1.32056923253675
O         3.29054116323256   -2.75156350422686    4.32492083659452
H         2.62935122223950   -3.11191733697346    4.95729538661967
H         4.10347455747334   -3.28718077267842    4.48743353840320
O         3.20431761020286   -6.43720366160949   -4.23801679460300
H         3.80751756619505   -6.53825188346866   -3.47956864112888
H         3.65212964890462   -5.87642790785271   -4.87799043867775
O        -2.29112849369462    6.56858509253853   -1.29799763010928
H        -2.35576319795929    5.68672456150854   -1.71503387069540
H        -1.89119148835348    7.12074848534372   -1.97463474468503
O         7.64388474245579    2.78901630519888    2.56941340743618
H         6.97216244144912    3.26079069772953    2.05396549758314
H         7.73923546787139    1.93892112794756    2.11296869192795
O        -0.51691684966364   -5.54075422928678   -3.04062300715596
H        -0.53137390296590   -5.69963807247700   -4.00897090523695
H        -1.31331734908374   -5.92876037056317   -2.66538937929518
O        -6.87022045217914   -0.37951183092067   -3.75497604760776
H        -7.19681273498832   -0.21688003009152   -2.85923247566369
H        -6.14157068720979   -1.03832518076022   -3.65513871112794
O        -0.17808670714069    0.59642669646906   -2.77220427341977
H        -0.55425512261829    0.04367100819525   -2.06471009015122
H        -0.30488176550041    1.52821902521775   -2.49655307604989
O         0.57780198908845   -1.85257963953308   -6.41811840658409
H         1.02246810947191   -2.48545119622808   -5.82155715773353
H         1.15952611794831   -1.08728523209004   -6.49138535102168
O         2.89312331537058   -4.35737269985784    2.22757588928139
H         3.40859674147039   -5.06308544570760    2.67033864658893
H         2.81420687250392   -3.65763051839414    2.91046861639768
O         5.29946903561347    2.16233583689758    6.97703103956922
H         5.39455797228467    3.10595691339453    7.12106775694916
H         5.64477078650386    1.99290544704916    6.07490148776446
O        -7.63288764025615   -1.55428895441715   -6.10480465106930
H        -7.45126086698734   -1.01739368940256   -5.31281104657765
H        -6.93483753343247   -1.32888199891614   -6.73963996487668
O        -3.67356857033343   -0.33976161965739   -5.73048250578008
H        -2.81077191358403   -0.55152295559785   -5.30909231194163
H        -4.05020075181966    0.41503107178430   -5.23516991964049
O         1.50457378788374   -3.73729646475839    6.02676012368474
H         0.78540004376073   -3.84710898283742    5.37393138584991
H         1.30174496576819   -2.95759949046147    6.59283051796353
O         3.93197270830069    1.18345708140866   -2.33247988421158
H         4.02845149382295    0.22723866455577   -2.30675234414534
H         4.80720578660440    1.58110270124891   -2.11055607044247
O        -6.95103058279532    2.10479102153303   -1.19310685580172
H        -6.76926453752059    2.45688392534689   -0.30487361404254
H        -6.07330036521963    2.14717817227291   -1.62060861712530
O        -4.92344437903978   -0.43618374921564    6.42055857005551
H        -5.67934912421719   -0.29032466404248    6.98918693468199
H        -4.22590924356640    0.17863198169549    6.71773345273982
O        -0.76803307316468    6.08368672033091    0.91042439142366
H        -0.17698102169799    6.84863256129536    0.88185565813904
H        -1.40468165233814    6.19597245832920    0.17765410702050
O         4.86448786986687   -6.68364987446802   -2.09186576584228
H         5.26916460291836   -6.08677852995151   -1.42949299158204
H         4.36818333278626   -7.32648725864108   -1.56903407942067
O        -2.54369214517948    1.13768079392022   -0.49205076578216
H        -2.40719213572070    0.28363463306069   -0.92095082927589
H        -1.66730695632761    1.40527864051740   -0.15053540712537
O        -4.56040124665378    0.70957171087575    1.10518206219294
H        -5.04906633282978    1.54749277033986    1.16234639585663
H        -3.77178542272333    0.92008973386020    0.55401588443314
O         3.98766874163734    4.66736819456924    5.65544248285214
H         3.59709580754214    5.10483259167725    4.87954976652778
H         4.02974647979808    3.73144114662900    5.40311812738921
O         1.61281160653497   -3.87957542899252   -4.88968304455316
H         2.48949702637159   -4.03404659159219   -5.28293636351920
H         1.03820580361887   -4.60311501887587   -5.17583224289054
O        -3.65797246386955   -5.61949923190257   -3.75857040048975
H        -3.37390510691806   -6.04682757826838   -2.92682317464144
H        -3.24672844829178   -4.72721472674417   -3.74422291244867
O        -3.76148990125709    4.46793136591920    3.95364770952334
H        -3.62689893446030    5.34616747564097    3.59786945153602
H        -3.36262216389149    3.84230190007583    3.29149085868540
O         7.36033969736400   -0.80930815991128    4.10321480688276
H         8.13826082100966   -0.65456147128836    3.56683813902226
H         7.00873823039239    0.08491036820602    4.34950664229790
O         2.91623784656893   -4.12932765568398   -2.42897176463992
H         2.57348178786220   -4.93667186529999   -2.00632994098761
H         2.38456919321056   -4.00842146195553   -3.23565902164764
O         0.09827645791365    6.28052352176429    3.81463070872687
H        -0.04431284464769    6.01182408567740    4.75128254724693
H         0.07557597576453    7.23490913240973    3.78075538202755
O        -6.84963078178679   -4.01581086501401    3.11607216723724
H        -7.69116177186630   -3.77214661122766    3.50037099165007
H        -6.41765750631624   -3.17246967116322    2.85118300266372
O         1.38538451208781   -6.06256070608542   -1.26525110582622
H         1.19259761698154   -5.29666492108103   -0.66991198326417
H         0.74304527753879   -5.98632197647675   -2.00124818965606
O        -2.56645765137203    2.84657597276541    2.27845364370871
H        -1.62561878899345    3.11071521098067    2.44020766241698
H        -2.64935269923480    1.90905899808321    2.47177467103420
O         1.21232982104457    7.94075257757636    0.42262403265513
H         1.36423125411437    8.87758680182578    0.31020696783102
H         2.06664063187191    7.56629962572286    0.80775787773240
O        -2.88592965770640   -4.71144685662732    4.69417592505320
H        -3.34761348451655   -5.37465997663419    5.20583435717814
H        -3.20580641794367   -4.81046748458097    3.75914432963099
O        -6.39670469406850   -3.85596257909346   -5.51342351431791
H        -6.99126262666477   -3.15640292332304   -5.85264806202785
H        -5.71424250253947   -4.01605754312840   -6.19448939049410
O        -5.91333565198203   -1.62026546653906    2.32123587724076
H        -6.55127173074226   -1.64347529464772    1.59290295453215
H        -5.05091858599438   -1.78541759532453    1.87251015376990
O         6.61229866243247   -2.49959642630754    6.15863035096301
H         6.05200487136683   -1.92242061041983    6.70166675019898
H         7.00976277684792   -1.91793100917289    5.49128906025373
O        -8.28135057623438   -4.41076094247276   -1.31241064914573
H        -7.55478771572035   -4.80342310688500   -1.82423513814954
H        -8.75548290173866   -3.86159137786046   -1.95905786982638
O        -0.62240792864748    6.89755951271311   -3.65196338844735
H         0.03825565505107    6.71282338141704   -2.93209670456787
H        -0.18610218965056    7.48634167848403   -4.26731823768519
O         2.58079554637013    2.81255070252694    2.25415909475958
H         1.85540053885246    2.22161633701487    2.53295254334951
H         2.80516367712056    2.52166967469562    1.35643361963908
O        -4.88121460870751   -5.81940904437814    0.15415342689853
H        -4.93636250784876   -4.93758086106826   -0.28127917142530
H        -5.79513222718861   -6.00240947954303    0.46441992417606
O         2.64122908166385    5.33512538864229    3.33650560861251
H         2.60275784253085    4.46092394987724    2.90346618455411
H         1.72009700670633    5.61616703759808    3.48438065339456
O         3.40867700246813    6.93494382474709    1.31790554768518
H         3.22731811291819    6.45722542827444    2.15392160300063
H         3.58769607042314    6.22028368488449    0.67748609195383
O         2.28591806835062    4.62013621376822    7.76394659214993
H         2.93029078576640    4.76061885893089    7.03701664922836
H         1.44785795794388    4.98259226764000    7.45215677993878
O         1.18191063727578   -7.93328036090332   -5.14390395920347
H         1.58106223337740   -8.52733477154292   -5.77839758466460
H         1.91442807544553   -7.43292401021715   -4.72792325537495
O         7.69801486959608   -2.19716615490391    0.72913169874438
H         7.40742100926234   -2.85143266490888    1.38328056804650
H         7.09392673546503   -2.27260252336513   -0.02686844460849
O        -5.20464949892049    1.56306476923238   -4.43930745228407
H        -5.89023036479578    0.89908172696154   -4.21100196493696
H        -4.81572458799493    1.82517563152157   -3.57269205718456
O        -5.23370102623511    5.57312521637084   -3.43420931640486
H        -4.74012084467061    6.20900145730057   -3.98208663862180
H        -5.69909457359334    4.98787151103001   -4.05675085228799
O        -3.39752616410445   -0.04336793614737   -3.00286283287607
H        -4.17219252021366   -0.16144121157740   -2.41607876805041
H        -2.73271006756319   -0.65708243807270   -2.67461421763387
O        -3.49260628968894    3.94418884886481   -5.92391153437327
H        -4.45673649956065    3.94267867352275   -5.94574524783561
H        -3.23087761487471    3.21801154246475   -5.31981250900095
O        -2.74593145799567   -6.33463579350123   -1.34556427452800
H        -2.51584415146196   -5.38517057868089   -1.09220358806242
H        -3.57244977210774   -6.48168188270818   -0.85241797783753
O         3.08308401734283   -0.36736642054521    5.60173877242726
H         3.12257037004358   -1.13601457296686    5.00360763846663
H         3.84318417126451   -0.45670823010713    6.22270568758878
O        -3.71644675885453   -2.41643713312525    1.07240376268775
H        -2.83859950795533   -2.01587041119511    1.19523927984948
H        -3.70823091207062   -3.26244565131692    1.56492450334006
O         1.11840431615738    3.27041613751418    4.95116118120348
H         0.80665296145143    2.48585562959780    5.45737487629700
H         2.07322295634783    3.09784759172950    4.82757745598057
O         4.88814936547084    1.00424825902475    2.35986648035887
H         4.20772280582187    0.34469875262205    2.12527737889465
H         5.72648164766896    0.66106928267383    1.99249471091412
O         6.08452354494726    2.54090893101627   -1.64358679691658
H         6.80506342436213    1.89958538408486   -1.63468038187052
H         5.92648598400884    2.80577062055676   -0.70612025920599
O         2.34891819268308    3.19902739058606   -5.08615763534314
H         1.47035936727735    3.55541710838829   -4.87148379113600
H         2.95195520198457    3.61838374160985   -4.46174631709280
O        -4.40007241655369    2.40884148579926   -2.03572974589054
H        -3.93420317447959    3.25350986183885   -2.16417610484353
H        -3.78645153752426    1.89081123616155   -1.48543112744751
O         5.75866666342891   -5.10588629650461   -0.07418117622601
H         5.14894207969705   -4.33290444174446   -0.01708216901673
H         5.38087793169554   -5.83378380133976    0.46997978271721
O        -0.38360648688153   -5.82464568393978   -5.67230546905990
H         0.13551115540471   -6.65231632637402   -5.62097968493974
H        -1.28543056571320   -6.09507357003438   -5.97619345216570
O         2.67895430411086    1.99255411278189    7.88643037710772
H         3.55999950575333    1.97542009886238    7.46995294048656
H         2.47517772240059    2.94957885016580    7.98993501120088
O        -2.87809868780720    0.02974903642019    3.03710833417588
H        -3.66412907262014    0.22468362848507    2.46688984223046
H        -3.12872697730772   -0.73287336612987    3.58380132938687
O         0.75543416492154    1.08080895709239    6.31896104602654
H         1.25522184045845    0.48707038246911    5.74016849137389
H         1.40705997880897    1.38312804298862    6.99294107898894
O         5.37141944551124   -1.84505881865282    2.55660958580008
H         6.11545003671620   -1.53471936409497    3.10112050831430
H         4.60105821521561   -1.88582357503538    3.13067471365779
O         4.23089735787811   -4.18055524085615   -5.66780324175950
H         4.75015926891469   -4.02382615923431   -4.84489142117462
H         4.56143046230006   -3.56938947553885   -6.32554725133564
O        -0.16933940791694   -4.54617109649667    4.06778495759883
H        -1.07297693010061   -4.69216005034082    4.39232592780034
H         0.33325050688001   -5.37447093365158    4.20079447221928
O        -5.15968719926215   -3.42198510965919   -1.04480209052782
H        -5.53577785749393   -3.80273401344587   -1.86101120209297
H        -5.91173637967176   -3.08327497532912   -0.52230545648416
O        -7.36343895952184   -2.31419457369158    0.11241326451519
H        -7.85650918637956   -3.05394656115452   -0.29182353965477
H        -7.56929516249909   -1.52127355476189   -0.41476416564131
O        -0.12383513346120    5.19158686991068    6.24186357778450
H         0.42888637704830    4.49483466279727    5.81701349287230
H        -0.98304908349357    4.75829809369462    6.36994823891640
O         6.96675336435578   -4.40864995695752    2.24203854909288
H         7.68811293000940   -5.00190434200669    2.44824753250285
H         6.59564150694935   -4.70863410988505    1.38100187768430
O        -1.40202921642081   -0.87996444269631    6.31416498200126
H        -2.09091929291043   -1.35752703473472    5.80980814179689
H        -1.86098506369433   -0.15259127234571    6.75980778712070
O         1.22433474211659   -1.50013203646252    7.37873327109224
H         0.34263343112640   -1.15128062100135    7.18369684703491
H         1.83265450208863   -1.05480293405740    6.75250124122935
O         6.08425095728295   -1.94099331062070   -1.57012032444491
H         5.14097187805690   -1.73996786923796   -1.43873236906127
H         6.08519673787484   -2.67072437834391   -2.20982150217229
O         0.82369456148140    4.13881828155394    0.15442603807872
H         0.73144162631916    3.54620632966864    0.91579774539306
H         0.19804953710378    4.87298277091407    0.39384845303921
O         3.05111580524957   -0.40257717437031    9.19198820880541
H         2.86370630536347    0.52275408877062    8.95724227616771
H         2.33860157011070   -0.91930992278671    8.78652938098574
O        -5.26768440226853   -0.61577451009653   -1.21185347612828
H        -5.02102791549709   -1.54582011859449   -1.10323457075635
H        -5.13623486142132   -0.19723426130710   -0.34394326631480
O         1.41737269209801   -6.68987616512245    4.75186650104047
H         0.77169676513175   -7.33708071020195    4.43937627447282
H         1.36374607436139   -6.64497173889466    5.72663796827158
O        -1.30835605211088    1.51845740979687    4.59583046456667
H        -0.89645410348469    1.01411415682227    5.31351170874003
H        -1.97984356222790    0.95122202782881    4.17085551697851
O        -8.19758899780483   -0.14522798930116   -1.33958103032544
H        -7.65055078261434    0.68990186691708   -1.21509401446179
H        -9.09890259223746    0.10882470018375   -1.14407001355411
O        -1.32039301052072   -1.04185824425981   -4.60097314294229
H        -0.64581094927691   -1.24480152849206   -5.26915832372139
H        -0.94153896366159   -0.35171559941352   -4.02374506703258
O         3.01228167310141   -0.63117551483483    1.34783351426200
H         3.45123780052076   -1.27628191302064    0.77254683528153
H         2.76057959604629    0.13650255978288    0.78488550541073
O         1.13743259025091    6.35934770754217   -1.79571495846779
H         1.10911255533319    5.46562411826175   -1.44092508198013
H         1.16351245949154    6.95932183672428   -1.02628754391124
O        -1.56976708311150   -1.23345873593498   -1.35601234796704
H        -1.03047809121216   -1.90676100527150   -1.81035389462221
H        -1.43185887688206   -1.36454152220087   -0.40170654980263
O        -2.81521318567521    4.43924049948837   -2.88489762049035
H        -2.49204212480320    3.73165189939388   -3.46748010337337
H        -3.60899033039622    4.83989363390259   -3.27659022050936
O        -6.24120545223765    3.26291520709717    3.59035283003176
H        -6.06137770625179    2.31445135162237    3.72803072735340
H        -5.43935839720828    3.72549256068369    3.87810392868122
O        -3.21088284693132    6.54648645506393   -4.96818910330299
H        -2.37713645402200    6.62214453165936   -4.48894359680976
H        -3.18747285642136    5.68518449464789   -5.42144833891874
O         3.88306498301440   -6.33948534877991    3.71098911950143
H         4.42969463344129   -5.78648168963418    4.29074872157898
H         3.02887376257977   -6.50797132360879    4.15672435614987
O         5.45706932402567    3.21725874645696    0.86627405883359
H         5.07144526902773    2.48912980594946    1.39002992639312
H         4.72089496590226    3.81506408749490    0.63503748387106
O         1.85246257478689    0.65068220859834   -5.88719985677052
H         2.23202478914644    1.51230957888006   -5.63041268421197
H         0.90819204489961    0.86211213007487   -6.01950159770425
O        -0.09917664429944    4.23493002116294   -4.30419983160223
H        -0.28695748557069    3.75266169084583   -3.47129934868197
H        -0.32584831369830    5.15865594213299   -4.11958572785373
