
Host: home

Timers On : Sun May  8 13:38:09 2022
Timers Off: Sun May  8 13:38:22 2022

Wall Time:       12.87 seconds

                                                       Time (seconds)
Module                                       User      System        Wall        Calls

--------------------------------------------------------------------------------------

**************************************************************************************
